/*--------------------------------*- C++ -*----------------------------------*\
| =========                 |                                                 |
| \\      /  F ield         | OpenFOAM: The Open Source CFD Toolbox           |
|  \\    /   O peration     | Version:  v1706                                 |
|   \\  /    A nd           | Web:      www.OpenFOAM.com                      |
|    \\/     M anipulation  |                                                 |
\*---------------------------------------------------------------------------*/
FoamFile
{
    version     2.0;
    format      ascii;
    class       volVectorField;
    location    "0.04";
    object      boundaryU;
}
// * * * * * * * * * * * * * * * * * * * * * * * * * * * * * * * * * * * * * //

dimensions      [0 1 -1 0 0 0 0];


internalField   uniform (0 0 0);

boundaryField
{
    inflow
    {
        type            fixedValue;
        value           nonuniform List<vector> 
100
(
(719.1304875090954 25.172575474152957 0)
(719.3627785226914 26.328806602546166 0)
(719.5950695362875 27.29233254287383 0)
(719.8273605498836 28.54491626529981 0)
(720.0596515634796 29.604794799660247 0)
(720.2919425770757 30.857378522086222 0)
(720.5242335906718 32.1099622445122 0)
(720.7565246042678 33.07348818483987 0)
(720.9888156178639 34.32607190726584 0)
(721.0275307867965 35.482303035659044 0)
(721.0662459557293 36.63853416405226 0)
(721.1049611246619 37.89111788647823 0)
(721.1436762935946 38.8546438268059 0)
(721.1436762935946 40.10722754923188 0)
(721.1823914625273 41.35981127165786 0)
(721.22110663146 42.4196898060183 0)
(721.2288496652466 43.672273528444265 0)
(721.2598218003927 44.7321520628047 0)
(721.2598218003927 45.88838319119792 0)
(721.2985369693254 47.140966913623885 0)
(721.3178945537917 48.10449285395157 0)
(721.337252138258 49.35707657637754 0)
(721.3566097227243 50.609660298803504 0)
(721.337252138258 51.57318623913119 0)
(721.453397645056 52.82576996155716 0)
(721.6856886586521 53.88564849591759 0)
(721.8986220877819 55.138232218343575 0)
(721.9954100101136 56.39081594076954 0)
(722.2277010237096 57.35434188109723 0)
(722.4599920373057 58.606925603523194 0)
(722.6922830509018 59.85950932594916 0)
(722.8858588955652 60.9193878603096 0)
(723.0020044023632 62.171971582735566 0)
(723.1181499091613 63.13549752306325 0)
(723.1955802470266 64.38808124548922 0)
(723.2342954159593 65.6406649679152 0)
(723.3194687876112 66.60419090824287 0)
(723.2988206975137 67.85677463066885 0)
(723.3504409227573 68.91665316502929 0)
(723.38915609169 70.16923688745526 0)
(723.38915609169 71.42182060988122 0)
(723.4278712606226 72.38534655020891 0)
(723.4278712606226 73.63793027263488 0)
(723.4472288450891 74.89051399506084 0)
(723.4859440140217 75.9503925294213 0)
(723.505301598488 77.20297625184726 0)
(723.5440167674207 78.26285478620771 0)
(723.621447105286 79.41908591460091 0)
(723.7375926120841 80.57531704299412 0)
(723.9698836256802 81.63519557735457 0)
(724.2021746392762 82.88777929978053 0)
(724.3183201460743 83.94765783414098 0)
(724.5118959907377 85.20024155656695 0)
(724.7441870043338 86.35647268496015 0)
(724.9764780179298 87.51270381335337 0)
(725.2087690315259 88.66893494174657 0)
(725.382987291723 89.92151866417254 0)
(725.441060045122 90.88504460450022 0)
(725.4797752140546 92.13762832692619 0)
(725.7120662276507 93.29385945531939 0)
(725.9443572412467 94.45009058371261 0)
(726.1572906703765 95.60632171210581 0)
(726.292793761641 96.76255284049901 0)
(726.3702240995062 97.91878396889223 0)
(726.3702240995062 99.1713676913182 0)
(726.4186180606721 100.23124622567865 0)
(726.408939268439 101.4838299481046 0)
(726.4863696063043 102.44735588843228 0)
(726.4863696063043 103.69993961085827 0)
(726.525084775237 104.95252333328422 0)
(726.5328278090235 105.9160492736119 0)
(726.5637999441697 107.16863299603789 0)
(726.583157528636 108.22851153039834 0)
(726.6025151131023 109.48109525282429 0)
(726.6025151131023 110.73367897525027 0)
(726.641230282035 111.69720491557796 0)
(726.641230282035 112.94978863800391 0)
(726.641230282035 114.20237236042989 0)
(726.641230282035 115.26225089479034 0)
(726.6799454509677 116.5148346172163 0)
(726.7186606199003 117.47836055754398 0)
(726.7186606199003 118.73094427996996 0)
(726.7573757888331 119.98352800239594 0)
(726.7573757888331 122.19963766514958 0)
(726.7573757888331 124.51209992193598 0)
(726.7573757888331 126.72820958468962 0)
(726.7960909577657 129.1370244355088 0)
(726.8348061266984 131.44948669229524 0)
(726.8348061266984 133.7619489490816 0)
(726.8348061266984 136.07441120586805 0)
(726.8735212956311 138.48322605668727 0)
(726.9122364645638 139.54310459104767 0)
(726.9315940490301 141.7592142538013 0)
(726.9703092179627 144.26438169865327 0)
(726.9896668024292 146.4804913614069 0)
(726.9896668024292 148.79295361819334 0)
(727.0090243868955 151.00906328094698 0)
(727.1058123092272 153.51423072579894 0)
(727.1058123092272 155.82669298258537 0)
(727.2219578160252 157.94645005130621 0)

)
;
    }
    outflow
    {
        type            fixedValue;
        value           nonuniform List<vector> 
100
(
(719.1304875090954 25.172575474152957 0)
(719.3627785226914 26.328806602546166 0)
(719.5950695362875 27.29233254287383 0)
(719.8273605498836 28.54491626529981 0)
(720.0596515634796 29.604794799660247 0)
(720.2919425770757 30.857378522086222 0)
(720.5242335906718 32.1099622445122 0)
(720.7565246042678 33.07348818483987 0)
(720.9888156178639 34.32607190726584 0)
(721.0275307867965 35.482303035659044 0)
(721.0662459557293 36.63853416405226 0)
(721.1049611246619 37.89111788647823 0)
(721.1436762935946 38.8546438268059 0)
(721.1436762935946 40.10722754923188 0)
(721.1823914625273 41.35981127165786 0)
(721.22110663146 42.4196898060183 0)
(721.2288496652466 43.672273528444265 0)
(721.2598218003927 44.7321520628047 0)
(721.2598218003927 45.88838319119792 0)
(721.2985369693254 47.140966913623885 0)
(721.3178945537917 48.10449285395157 0)
(721.337252138258 49.35707657637754 0)
(721.3566097227243 50.609660298803504 0)
(721.337252138258 51.57318623913119 0)
(721.453397645056 52.82576996155716 0)
(721.6856886586521 53.88564849591759 0)
(721.8986220877819 55.138232218343575 0)
(721.9954100101136 56.39081594076954 0)
(722.2277010237096 57.35434188109723 0)
(722.4599920373057 58.606925603523194 0)
(722.6922830509018 59.85950932594916 0)
(722.8858588955652 60.9193878603096 0)
(723.0020044023632 62.171971582735566 0)
(723.1181499091613 63.13549752306325 0)
(723.1955802470266 64.38808124548922 0)
(723.2342954159593 65.6406649679152 0)
(723.3194687876112 66.60419090824287 0)
(723.2988206975137 67.85677463066885 0)
(723.3504409227573 68.91665316502929 0)
(723.38915609169 70.16923688745526 0)
(723.38915609169 71.42182060988122 0)
(723.4278712606226 72.38534655020891 0)
(723.4278712606226 73.63793027263488 0)
(723.4472288450891 74.89051399506084 0)
(723.4859440140217 75.9503925294213 0)
(723.505301598488 77.20297625184726 0)
(723.5440167674207 78.26285478620771 0)
(723.621447105286 79.41908591460091 0)
(723.7375926120841 80.57531704299412 0)
(723.9698836256802 81.63519557735457 0)
(724.2021746392762 82.88777929978053 0)
(724.3183201460743 83.94765783414098 0)
(724.5118959907377 85.20024155656695 0)
(724.7441870043338 86.35647268496015 0)
(724.9764780179298 87.51270381335337 0)
(725.2087690315259 88.66893494174657 0)
(725.382987291723 89.92151866417254 0)
(725.441060045122 90.88504460450022 0)
(725.4797752140546 92.13762832692619 0)
(725.7120662276507 93.29385945531939 0)
(725.9443572412467 94.45009058371261 0)
(726.1572906703765 95.60632171210581 0)
(726.292793761641 96.76255284049901 0)
(726.3702240995062 97.91878396889223 0)
(726.3702240995062 99.1713676913182 0)
(726.4186180606721 100.23124622567865 0)
(726.408939268439 101.4838299481046 0)
(726.4863696063043 102.44735588843228 0)
(726.4863696063043 103.69993961085827 0)
(726.525084775237 104.95252333328422 0)
(726.5328278090235 105.9160492736119 0)
(726.5637999441697 107.16863299603789 0)
(726.583157528636 108.22851153039834 0)
(726.6025151131023 109.48109525282429 0)
(726.6025151131023 110.73367897525027 0)
(726.641230282035 111.69720491557796 0)
(726.641230282035 112.94978863800391 0)
(726.641230282035 114.20237236042989 0)
(726.641230282035 115.26225089479034 0)
(726.6799454509677 116.5148346172163 0)
(726.7186606199003 117.47836055754398 0)
(726.7186606199003 118.73094427996996 0)
(726.7573757888331 119.98352800239594 0)
(726.7573757888331 122.19963766514958 0)
(726.7573757888331 124.51209992193598 0)
(726.7573757888331 126.72820958468962 0)
(726.7960909577657 129.1370244355088 0)
(726.8348061266984 131.44948669229524 0)
(726.8348061266984 133.7619489490816 0)
(726.8348061266984 136.07441120586805 0)
(726.8735212956311 138.48322605668727 0)
(726.9122364645638 139.54310459104767 0)
(726.9315940490301 141.7592142538013 0)
(726.9703092179627 144.26438169865327 0)
(726.9896668024292 146.4804913614069 0)
(726.9896668024292 148.79295361819334 0)
(727.0090243868955 151.00906328094698 0)
(727.1058123092272 153.51423072579894 0)
(727.1058123092272 155.82669298258537 0)
(727.2219578160252 157.94645005130621 0)

)
;
    }
    topwall
    {
        type            fixedValue;
        value           uniform (720 0 0); 

    }
    frontAndBackPlanes
    {
        type            empty;
    }
    symmetry
    {
        type            empty;
    }
    obstacle
    {
        type            zeroGradient;
    }


}


// ************************************************************************* //
