/*--------------------------------*- C++ -*----------------------------------*\
| =========                 |                                                 |
| \\      /  F ield         | OpenFOAM: The Open Source CFD Toolbox           |
|  \\    /   O peration     | Version:  v1706                                 |
|   \\  /    A nd           | Web:      www.OpenFOAM.com                      |
|    \\/     M anipulation  |                                                 |
\*---------------------------------------------------------------------------*/
FoamFile
{
    version     2.0;
    format      ascii;
    class       volScalarField;
    location    "0.04";
    object      boundaryNumberDensity_N2cold;
}
// * * * * * * * * * * * * * * * * * * * * * * * * * * * * * * * * * * * * * //

dimensions      [0 -3 0 0 0 0 0];


internalField   uniform 0;

boundaryField
{
    inflow
    {
        type            fixedValue;
        value           nonuniform List<scalar> 
100
(
6.804743383294108e21
6.80455480107654e21
6.806356808933298e21
6.812569545323169e21
6.812133448945043e21
6.812902707240871e21
6.819423783615534e21
6.8192642140468225e21
6.820301416243445e21
6.820301416243445e21
6.824035344151286e21
6.82652462942318e21
6.826336047205612e21
6.826178895357639e21
6.830107691556967e21
6.834217212381463e21
6.8311920393079815e21
6.83482224699616e21
6.837933853586027e21
6.8394896568809616e21
6.845194268962385e21
6.846231471159007e21
6.853020430991445e21
6.853880837359098e21
6.854529088731987e21
6.859954454068166e21
6.860233700813411e21
6.861789504108344e21
6.866409768438754e21
6.869049919484702e21
6.873890196402273e21
6.871124323877947e21
6.875791733762748e21
6.8787304733198456e21
6.882681719783169e21
6.884607952434039e21
6.891868367810397e21
6.895451429944184e21
6.8980915809901315e21
6.899244027875268e21
6.903277591973244e21
6.9059177430191925e21
6.906389198563112e21
6.910653252038115e21
6.912612411742846e21
6.911575209546224e21
6.914686816136092e21
6.919872827119204e21
6.927133242495561e21
6.934393657871919e21
6.9416540732482765e21
6.9489144886246335e21
6.956174904000991e21
6.963435319377348e21
6.970129988101003e21
6.977956150130063e21
6.985216565506421e21
6.9924769808827785e21
6.999737396259135e21
7.006997811635493e21
7.014603961077391e21
7.020481440191586e21
7.0277418555679425e21
7.0350022709443e21
7.042262686320657e21
7.050099325139583e21
7.056207293630805e21
7.06404393244973e21
7.0713043478260875e21
7.078694413477022e21
7.086214129402536e21
7.086084479127957e21
7.093085593955159e21
7.092519847302456e21
7.100346009331517e21
7.107606424707874e21
7.114866840084232e21
7.1221272554605894e21
7.129387670836946e21
7.136648086213304e21
7.14356276752412e21
7.150131714769397e21
7.1573921301457535e21
7.164652545522111e21
7.171912960898468e21
7.179173376274826e21
7.186433791651183e21
7.193694207027541e21
7.2009546224038985e21
7.208215037780255e21
7.215475453156613e21
7.22273586853297e21
7.2279218795160824e21
7.229996283909328e21
7.23518229489244e21
7.237371943974199e21
7.242442710268797e21
7.244517114662043e21
7.249703125645155e21
7.2517775300383995e21


)
;
    }
    outflow
    {
        type            fixedValue;
        value           nonuniform List<scalar> 
100
(
6.804743383294108e21
6.80455480107654e21
6.806356808933298e21
6.812569545323169e21
6.812133448945043e21
6.812902707240871e21
6.819423783615534e21
6.8192642140468225e21
6.820301416243445e21
6.820301416243445e21
6.824035344151286e21
6.82652462942318e21
6.826336047205612e21
6.826178895357639e21
6.830107691556967e21
6.834217212381463e21
6.8311920393079815e21
6.83482224699616e21
6.837933853586027e21
6.8394896568809616e21
6.845194268962385e21
6.846231471159007e21
6.853020430991445e21
6.853880837359098e21
6.854529088731987e21
6.859954454068166e21
6.860233700813411e21
6.861789504108344e21
6.866409768438754e21
6.869049919484702e21
6.873890196402273e21
6.871124323877947e21
6.875791733762748e21
6.8787304733198456e21
6.882681719783169e21
6.884607952434039e21
6.891868367810397e21
6.895451429944184e21
6.8980915809901315e21
6.899244027875268e21
6.903277591973244e21
6.9059177430191925e21
6.906389198563112e21
6.910653252038115e21
6.912612411742846e21
6.911575209546224e21
6.914686816136092e21
6.919872827119204e21
6.927133242495561e21
6.934393657871919e21
6.9416540732482765e21
6.9489144886246335e21
6.956174904000991e21
6.963435319377348e21
6.970129988101003e21
6.977956150130063e21
6.985216565506421e21
6.9924769808827785e21
6.999737396259135e21
7.006997811635493e21
7.014603961077391e21
7.020481440191586e21
7.0277418555679425e21
7.0350022709443e21
7.042262686320657e21
7.050099325139583e21
7.056207293630805e21
7.06404393244973e21
7.0713043478260875e21
7.078694413477022e21
7.086214129402536e21
7.086084479127957e21
7.093085593955159e21
7.092519847302456e21
7.100346009331517e21
7.107606424707874e21
7.114866840084232e21
7.1221272554605894e21
7.129387670836946e21
7.136648086213304e21
7.14356276752412e21
7.150131714769397e21
7.1573921301457535e21
7.164652545522111e21
7.171912960898468e21
7.179173376274826e21
7.186433791651183e21
7.193694207027541e21
7.2009546224038985e21
7.208215037780255e21
7.215475453156613e21
7.22273586853297e21
7.2279218795160824e21
7.229996283909328e21
7.23518229489244e21
7.237371943974199e21
7.242442710268797e21
7.244517114662043e21
7.249703125645155e21
7.2517775300383995e21


)
;
    }
    topwall
    {
        type            zeroGradient;
    }
    frontAndBackPlanes
    {
        type            empty;
    }
    
    obstacle
    {
        type            zeroGradient;
    }


}


// ************************************************************************* //
